
Running Job 1 of 1 gs.inp
qchem gs.inp_2047.0 /scratch/qchem/qchem2047/ 1
/mnt/software/qchem/bin/mpi/mpirun_qchem -machinefile /mnt/software/qchem/bin/mpi/machines -np 1 /mnt/software/qchem/exe/qcprog.exe gs.inp_2047.0 /scratch/qchem/qchem2047/

Process 0 of 1 is on tp-linux1 - thread support 0
initial socket setup ...start
initial socket setup ...done 
now start server 0 ... 

cmd = ssh tp-linux1 /mnt/software/qchem/bin/get_hostid 2143511327 > /scratch/qchem/qchem2047/lic.dat
                  Welcome to Q-Chem
     A Quantum Leap Into The Future Of Chemistry


 Q-Chem 4.3, Q-Chem, Inc., Pleasanton, CA (2015)

 Y. Shao,  Z. Gan,  E. Epifanovsky,  A. T. B. Gilbert,  M. Wormit,  
 J. Kussmann,  A. W. Lange,  A. Behn,  J. Deng,  X. Feng,  D. Ghosh,  
 M. Goldey,  P. R. Horn,  L. D. Jacobson,  I. Kaliman,  R. Z. Khaliullin,  
 T. Kus,  A. Landau,  J. Liu,  E. I. Proynov,  Y. M. Rhee,  R. M. Richard,  
 M. A. Rohrdanz,  R. P. Steele,  E. J. Sundstrom,  H. L. Woodcock III,  
 P. M. Zimmerman,  D. Zuev,  B. Albrecht,  E. Alguire,  B. Austin,  
 S. A. Baeppler,  G. J. O. Beran,  Y. A. Bernard,  E. Berquist,  
 K. Brandhorst,  K. B. Bravaya,  S. T. Brown,  D. Casanova,  C.-M. Chang,  
 Y. Chen,  S. H. Chien,  K. D. Closser,  D. L. Crittenden,  M. Diedenhofen,  
 R. A. DiStasio Jr.,  H. Do,  A. D. Dutoi,  R. G. Edgar,  P.-T. Fang,  
 S. Fatehi,  Q. Feng,  L. Fusti-Molnar,  A. Ghysels,  
 A. Golubeva-Zadorozhnaya,  J. Gomes,  A. Gunina,  M. W. D. Hanson-Heine,  
 P. H. P. Harbach,  A. W. Hauser,  E. G. Hohenstein,  Z. C. Holden,  K. Hui,  
 T.-C. Jagau,  H. Ji,  B. Kaduk,  K. Khistyaev,  Jaehoon Kim,  Jihan Kim,  
 R. A. King,  P. Klunzinger,  D. Kosenkov,  T. Kowalczyk,  C. M. Krauter,  
 K. U. Lao,  A. Laurent,  K. V. Lawler,  S. Lehtola,  S. V. Levchenko,  
 C. Y. Lin,  Y.-S. Lin,  F. Liu,  E. Livshits,  R. C. Lochan,  A. Luenser,  
 P. Manohar,  S. F. Manzer,  S.-P. Mao,  N. Mardirossian,  A. V. Marenich,  
 L. A. Martinez-Martinez,  S. A. Maurer,  N. J. Mayhall,  K. Nanda,  
 C. M. Oana,  R. Olivares-Amaya,  D. P. O'Neill,  J. A. Parkhill,  
 T. M. Perrine,  R. Peverati,  P. A. Pieniazek,  F. Plasser,  A. Prociuk,  
 D. R. Rehn,  E. Rosta,  N. J. Russ,  N. Sergueev,  S. M. Sharada,  
 S. Sharma,  D. W. Small,  A. Sodt,  T. Stauch,  T. Stein,  D. Stuck,  
 Y.-C. Su,  A. J. W. Thom,  T. Tsuchimochi,  L. Vogt,  O. Vydrov,  T. Wang,  
 M. A. Watson,  J. Wenzel,  A. White,  C. F. Williams,  V. Vanovschi,  
 S. Yeganeh,  S. R. Yost,  Z.-Q. You,  I. Y. Zhang,  X. Zhang,  Y. Zhao,  
 B. R. Brooks,  G. K. L. Chan,  D. M. Chipman,  C. J. Cramer,  
 W. A. Goddard III,  M. S. Gordon,  W. J. Hehre,  A. Klamt,  
 H. F. Schaefer III,  M. W. Schmidt,  C. D. Sherrill,  D. G. Truhlar,  
 A. Warshel,  X. Xu,  A. Aspuru-Guzik,  R. Baer,  A. T. Bell,  N. A. Besley,  
 J.-D. Chai,  A. Dreuw,  B. D. Dunietz,  T. R. Furlani,  S. R. Gwaltney,  
 C.-P. Hsu,  Y. Jung,  J. Kong,  D. S. Lambrecht,  W. Liang,  C. Ochsenfeld,  
 V. A. Rassolov,  L. V. Slipchenko,  J. E. Subotnik,  T. Van Voorhis,  
 J. M. Herbert,  A. I. Krylov,  P. M. W. Gill,  M. Head-Gordon

 Contributors to earlier versions of Q-Chem not listed above: 
 R. D. Adamson,  J. Baker,  E. F. C. Byrd,  A. K. Chakraborty,  C.-L. Cheng,  
 H. Dachsel,  R. J. Doerksen,  G. Hawkins,  A. Heyden,  S. Hirata,  
 G. Kedziora,  F. J. Keil,  C. Kelley,  P. P. Korambath,  W. Kurlancheek,  
 A. M. Lee,  M. S. Lee,  D. Liotard,  I. Lotan,  P. E. Maslen,  N. Nair,  
 D. Neuhauser,  R. Olson,  B. Peters,  J. Ritchie,  N. E. Schultz,  
 N. Shenvi,  A. C. Simmonett,  K. S. Thanthiriwatte,  Q. Wu,  W. Zhang

 Please cite Q-Chem as follows:
 Y. Shao et al., Mol. Phys. 113, 184-215 (2015)
 DOI: 10.1080/00268976.2014.952696

 Q-Chem 4.3.0 for Intel X86 Linux

 Parts of Q-Chem use Armadillo 5.200.1 (Boston Tea Smuggler).
 http://arma.sourceforge.net/

 Q-Chem begins on Mon Mar 20 11:59:12 2017  

Host: 
0

     Scratch files written to /scratch/qchem/qchem2047//
 Nov1815 1189b_ 19540  19532 5443   
 Parallel job on  1  processors
Processing $rem in /mnt/software/qchem/config/preferences.
 MEM_TOTAL  2000 

Checking the input file for inconsistencies... 	...done.

--------------------------------------------------------------
User input:
--------------------------------------------------------------
$molecule
0 1
H      5.766133   -2.799480   -2.516382
C      5.833987   -3.885600   -2.589207
C      4.849101   -4.591167   -3.284972
C      4.917696   -5.982352   -3.389880
C      5.987529   -6.619127   -2.783547
C      6.983509   -5.935157   -2.083046
C      6.904531   -4.547131   -1.985006
S      6.288339   -8.385018   -2.782673
C      7.785956   -8.184132   -1.817327
C      8.019603   -6.836718   -1.526209
C      9.144455   -6.497341   -0.780932
C     10.006251   -7.511938   -0.345848
C      9.750923   -8.850714   -0.649689
C      8.623915   -9.201906   -1.397682
O      6.609332   -8.846743   -4.121123
O      5.274770   -9.073133   -2.003667
H      4.159694   -6.553193   -3.928384
H     10.448393   -9.608081   -0.290782
H      8.408879  -10.242687   -1.644309
H      9.371558   -5.459577   -0.527088
H      4.021991   -4.052665   -3.748867
H      7.665981   -3.982166   -1.445029
N     11.167676   -7.190418    0.420585
C     12.304849   -6.724482   -0.280882
C     13.537641   -6.575823    0.380940
S     13.733986   -7.148671    2.042848
C     12.106519   -6.816806    2.651021
C     10.991086   -6.945794    1.803048
C     12.248314   -6.410652   -1.646156
C     13.378099   -5.952576   -2.323047
C     14.582305   -5.773801   -1.651825
C     14.651394   -6.081709   -0.294319
C     11.940542   -6.538229    4.005794
C     10.666167   -6.433441    4.560234
C      9.557644   -6.596315    3.737279
C      9.714673   -6.837661    2.372907
H     11.318557   -6.539488   -2.197333
H      8.828443   -6.959376    1.752727
H     13.302020   -5.729141   -3.387934
H     15.585743   -5.960492    0.256751
H     12.829409   -6.424603    4.629000
H      8.550160   -6.529937    4.149916
H     15.464945   -5.406182   -2.175385
H     10.547261   -6.234518    5.625410
$end

$rem
JOBTYPE         SP
METHOD          PBE0
BASIS           6-31G*
SCF_PRINT       TRUE
$end

--------------------------------------------------------------
 ----------------------------------------------------------------
             Standard Nuclear Orientation (Angstroms)
    I     Atom           X                Y                Z
 ----------------------------------------------------------------
    1      H       4.1216749642     0.0035112017     4.2358288902
    2      C       4.1387634118     0.0027274801     3.1452915588
    3      C       5.3654646725     0.0023521089     2.4766227053
    4      C       5.4090380823     0.0012794885     1.0804827144
    5      C       4.2022334137     0.0005921921     0.4013017556
    6      C       2.9643366973     0.0009868822     1.0479116349
    7      C       2.9333062218     0.0020683524     2.4412893593
    8      S       4.0053891479    -0.0013539191    -1.3791776719
    9      C       2.2180569673    -0.0012655688    -1.2358304294
   10      C       1.8211285129     0.0000690270     0.1048078957
   11      C       0.4617146797     0.0003972302     0.4012880790
   12      C      -0.4655240149    -0.0004779473    -0.6482952394
   13      C      -0.0437667955    -0.0017857461    -1.9794421346
   14      C       1.3193054916    -0.0022062842    -2.2876792906
   15      O       4.4661630250    -1.2585521071    -1.9402614753
   16      O       4.4660949948     1.2545973113    -1.9431026212
   17      H       6.3556715824     0.0009205496     0.5379903873
   18      H      -0.7999095525    -0.0024503471    -2.7650190549
   19      H       1.6667221622    -0.0032150757    -3.3218896597
   20      H       0.1003480694     0.0013462036     1.4320062466
   21      H       6.2943567526     0.0028802784     3.0479834947
   22      H       1.9831653946     0.0023597898     2.9777584058
   23      N      -1.8665498785    -0.0001605091    -0.3711145881
   24      C      -2.4658546450    -1.2366636882    -0.0331672177
   25      C      -3.8654712504    -1.3470201659     0.0605279201
   26      S      -4.9023594096    -0.0000211685    -0.4284516675
   27      C      -3.8652918450     1.3473163028     0.0592267277
   28      C      -2.4656906043     1.2367377733    -0.0344516924
   29      C      -1.6973528076    -2.3849353691     0.2046050324
   30      C      -2.3033252369    -3.5961075060     0.5367024030
   31      C      -3.6848301380    -3.6860394259     0.6630670443
   32      C      -4.4599605574    -2.5515078056     0.4297989546
   33      C      -4.4596688570     2.5522255854     0.4272932696
   34      C      -3.6844310344     3.6869467048     0.6593065855
   35      C      -2.3029536099     3.5967926278     0.5328214824
   36      C      -1.6970974819     2.3852358658     0.2019355238
   37      H      -0.6133713196    -2.3440664724     0.1142903261
   38      H      -0.6131364041     2.3442103514     0.1114552749
   39      H      -1.6762218811    -4.4728507026     0.7033105797
   40      H      -5.5475121297    -2.5942280845     0.5121780478
   41      H      -5.5472122866     2.5951197759     0.5096978036
   42      H      -1.6757833112     4.4736908478     0.6983698774
   43      H      -4.1613765563    -4.6286993264     0.9325257530
   44      H      -4.1608819421     4.6299256581     0.9278100937
 ----------------------------------------------------------------
 Molecular Point Group                 C1    NOp =  1
 Largest Abelian Subgroup              C1    NOp =  1
 Nuclear Repulsion Energy =  2898.9010197094 hartrees
 There are      107 alpha and      107 beta electrons
 Requested basis set is 6-31G(d)
 There are 148 shells and 473 basis functions

 Total QAlloc Memory Limit   2000 MB
 Mega-Array Size        61 MB
 MEM_STATIC part        62 MB
 tim1(1): 
  1.600000000000000E-002
 tim1(2): 
  0.000000000000000E+000
 A cutoff of  1.0D-08 yielded   4752 shell pairs
 There are     52916 function pairs
 
 -------------------------------------------------------
 OpenMP Integral Computing Module                       
 Release: version 1.0, May 2013, Q-Chem Inc. Pittsburgh 
 -------------------------------------------------------
 Integral Job Info:
 Integral job number is                      11
 Integral operator is                         1
 short-range coefficients                     0
 long-range coefficients              100000000
 Omega coefficients                           0
 if combine SR and LR in K                    0
 Integral screening is                        0
 Integral computing path is                   2
 max size of driver memory is            800000
 size of driver memory is                593474
 size of scratch memory is             15166112
 max col of scratch BK array               1296
 max len of scratch array in speh3          155
 max len of scratch index in speh4           18
 max int batch size is                      520
 min int batch size is                       52
 fixed nKL is                                52
 max L of basis functions is                  2
 order of int derivative is                   0
 number of shells is                        148
 number of basis is                         473
 number of cartesian basis is               473
 number of contracted shell pairs          4752
 number of primitive shell pairs          16594
 maxK2 (contraction) of shell pair           36
 max number of K2 of shell pair               1
 max number of CS2 of shell pair            603
 max number of PS2 of shell pair           3618
 mem total for path MDJ                  127912
 -------------------------------------------------------
 Smallest overlap matrix eigenvalue = 3.50E-04

 Scale SEOQF with 1.000000e-02/1.000000e-01/1.000000e-01

 Standard Electronic Orientation quadrupole field applied
 Nucleus-field energy     =     0.0000000143 hartrees
 Guess from superposition of atomic densities
 Warning:  Energy on first SCF cycle will be non-variational
 A restricted hybrid HF-DFT SCF calculation will be
 performed using Pulay DIIS extrapolation
 Exchange:     0.2500 Hartree-Fock + 0.7500 PBE
 Correlation:  1.0000 PBE
 Using SG-1 standard quadrature grid
 SCF converges when DIIS error is below 1.0E-05
 Maximum number of SCF iterations = 50
 using 8 threads for integral computing 
 -------------------------------------------------------
 OpenMP BLAS3 based DFT computing Module                
 Release: version 1.0, May 2013, Q-Chem Inc. Pittsburgh 
 -------------------------------------------------------
 One-Electron    Energy = -8382.2914293934
 Total Coulomb   Energy =  3761.5078306140
 Alpha Exchange  Energy =   -26.0083474959
 Beta  Exchange  Energy =   -26.0083474959
 DFT   Exchange  Energy =  -150.5050903497
 DFT Correlation Energy =    -7.5077896421
 Kinetic         Energy =  1911.2009851185
 Nuclear Repu.   Energy =  2898.9010197236
 Nuclear Attr.   Energy = -10293.4924145119
 Ewald QM/MM     Energy =     0.0000000000
 ---------------------------------------
  Cycle       Energy         DIIS Error
 ---------------------------------------
    1   -1931.9121540395      3.83E-02
 One-Electron    Energy = -8402.0439429604
 Total Coulomb   Energy =  3790.9919881369
 Alpha Exchange  Energy =   -25.4905397495
 Beta  Exchange  Energy =   -25.4905397495
 DFT   Exchange  Energy =  -152.5348508174
 DFT Correlation Energy =    -7.4543432661
 Kinetic         Energy =  1918.2367665115
 Nuclear Repu.   Energy =  2898.9010197236
 Nuclear Attr.   Energy = -10320.2807094719
 Ewald QM/MM     Energy =     0.0000000000
    2   -1923.1212086824      3.95E-03
 One-Electron    Energy = -8397.9532528209
 Total Coulomb   Energy =  3785.3475009369
 Alpha Exchange  Energy =   -25.2285787827
 Beta  Exchange  Energy =   -25.2285787827
 DFT   Exchange  Energy =  -150.9241601305
 DFT Correlation Energy =    -7.4390414872
 Kinetic         Energy =  1906.1218060923
 Nuclear Repu.   Energy =  2898.9010197236
 Nuclear Attr.   Energy = -10304.0750589132
 Ewald QM/MM     Energy =     0.0000000000
    3   -1922.5250913435      6.52E-03
 One-Electron    Energy = -8388.7151138001
 Total Coulomb   Energy =  3775.9620474752
 Alpha Exchange  Energy =   -25.3365314649
 Beta  Exchange  Energy =   -25.3365314649
 DFT   Exchange  Energy =  -151.5233667680
 DFT Correlation Energy =    -7.4338721819
 Kinetic         Energy =  1909.9123001876
 Nuclear Repu.   Energy =  2898.9010197236
 Nuclear Attr.   Energy = -10298.6274139877
 Ewald QM/MM     Energy =     0.0000000000
    4   -1923.4823484809      1.16E-03
 One-Electron    Energy = -8395.9749048744
 Total Coulomb   Energy =  3783.3653836375
 Alpha Exchange  Energy =   -25.3552119507
 Beta  Exchange  Energy =   -25.3552119507
 DFT   Exchange  Energy =  -151.6587042649
 DFT Correlation Energy =    -7.4403300593
 Kinetic         Energy =  1911.0631854495
 Nuclear Repu.   Energy =  2898.9010197236
 Nuclear Attr.   Energy = -10307.0380903239
 Ewald QM/MM     Energy =     0.0000000000
    5   -1923.5179597388      3.49E-04
 One-Electron    Energy = -8395.1088347335
 Total Coulomb   Energy =  3782.5076624954
 Alpha Exchange  Energy =   -25.3568085073
 Beta  Exchange  Energy =   -25.3568085073
 DFT   Exchange  Energy =  -151.6669023505
 DFT Correlation Energy =    -7.4401871473
 Kinetic         Energy =  1911.2501711778
 Nuclear Repu.   Energy =  2898.9010197236
 Nuclear Attr.   Energy = -10306.3590059114
 Ewald QM/MM     Energy =     0.0000000000
    6   -1923.5208590269      1.57E-04
 One-Electron    Energy = -8395.0359463706
 Total Coulomb   Energy =  3782.4242335593
 Alpha Exchange  Energy =   -25.3558495053
 Beta  Exchange  Energy =   -25.3558495053
 DFT   Exchange  Energy =  -151.6595613500
 DFT Correlation Energy =    -7.4395715842
 Kinetic         Energy =  1911.1613547328
 Nuclear Repu.   Energy =  2898.9010197236
 Nuclear Attr.   Energy = -10306.1973011034
 Ewald QM/MM     Energy =     0.0000000000
    7   -1923.5215250324      4.34E-05
 One-Electron    Energy = -8394.9524677974
 Total Coulomb   Energy =  3782.3361366101
 Alpha Exchange  Energy =   -25.3553359554
 Beta  Exchange  Energy =   -25.3553359554
 DFT   Exchange  Energy =  -151.6560990068
 DFT Correlation Energy =    -7.4394923305
 Kinetic         Energy =  1911.1123896684
 Nuclear Repu.   Energy =  2898.9010197236
 Nuclear Attr.   Energy = -10306.0648574658
 Ewald QM/MM     Energy =     0.0000000000
    8   -1923.5215747117      1.39E-05
 One-Electron    Energy = -8394.9342002543
 Total Coulomb   Energy =  3782.3173314285
 Alpha Exchange  Energy =   -25.3552685657
 Beta  Exchange  Energy =   -25.3552685657
 DFT   Exchange  Energy =  -151.6556779214
 DFT Correlation Energy =    -7.4395161325
 Kinetic         Energy =  1911.1099434442
 Nuclear Repu.   Energy =  2898.9010197236
 Nuclear Attr.   Energy = -10306.0441436985
 Ewald QM/MM     Energy =     0.0000000000
    9   -1923.5215802874      5.10E-06 Convergence criterion met
 ---------------------------------------
 One-Electron    Energy = -8394.9342002543
 Total Coulomb   Energy =  3782.3173314285
 Alpha Exchange  Energy =   -25.3552685657
 Beta  Exchange  Energy =   -25.3552685657
 DFT   Exchange  Energy =  -151.6556779214
 DFT Correlation Energy =    -7.4395161325
 Nuclear Repu.   Energy =  2898.9010197236
 Nuclear Attr.   Energy = -10306.0441436985
 Kinetic         Energy =  1911.1099434442
 SCF time:  CPU 177.82 s  wall 27.42 s
 SCF   energy in the final basis set = -1923.5215802874
 Total energy in the final basis set = -1923.5215802874
 
 --------------------------------------------------------------
 
                    Orbital Energies (a.u.)
 --------------------------------------------------------------
 
 Alpha MOs
 -- Occupied --
-89.258 -89.053 -19.225 -19.225 -14.455 -10.309 -10.299 -10.299
-10.293 -10.290 -10.289 -10.287 -10.282 -10.279 -10.279 -10.278
-10.278 -10.275 -10.274 -10.273 -10.272 -10.250 -10.250 -10.247
-10.247 -10.246 -10.246 -10.242 -10.242  -8.194  -8.020  -6.131
 -6.131  -6.131  -5.959  -5.955  -5.949  -1.144  -1.036  -1.019
 -0.945  -0.911  -0.894  -0.889  -0.847  -0.832  -0.821  -0.802
 -0.792  -0.780  -0.778  -0.756  -0.727  -0.705  -0.687  -0.664
 -0.655  -0.638  -0.628  -0.625  -0.618  -0.584  -0.567  -0.566
 -0.558  -0.540  -0.522  -0.509  -0.499  -0.494  -0.489  -0.481
 -0.481  -0.479  -0.478  -0.476  -0.467  -0.457  -0.453  -0.441
 -0.439  -0.431  -0.431  -0.415  -0.406  -0.403  -0.397  -0.390
 -0.389  -0.385  -0.375  -0.359  -0.347  -0.346  -0.343  -0.341
 -0.337  -0.325  -0.314  -0.309  -0.290  -0.289  -0.275  -0.270
 -0.262  -0.240  -0.199
 -- Virtual --
 -0.071  -0.054  -0.026  -0.017  -0.007  -0.001   0.012   0.021
  0.043   0.060   0.068   0.076   0.081   0.095   0.104   0.122
  0.122   0.129   0.140   0.143   0.151   0.157   0.159   0.165
  0.168   0.171   0.176   0.181   0.184   0.193   0.198   0.202
  0.204   0.207   0.222   0.231   0.241   0.246   0.258   0.268
  0.281   0.288   0.293   0.297   0.304   0.318   0.322   0.325
  0.335   0.336   0.339   0.371   0.375   0.380   0.381   0.387
  0.407   0.408   0.418   0.420   0.431   0.436   0.454   0.504
  0.511   0.517   0.524   0.526   0.529   0.536   0.542   0.542
  0.547   0.552   0.553   0.555   0.564   0.566   0.574   0.577
  0.579   0.588   0.590   0.597   0.597   0.598   0.602   0.603
  0.607   0.615   0.618   0.622   0.623   0.624   0.625   0.626
  0.628   0.634   0.641   0.648   0.660   0.664   0.670   0.695
  0.702   0.710   0.711   0.727   0.736   0.752   0.764   0.778
  0.787   0.792   0.808   0.811   0.813   0.817   0.825   0.832
  0.839   0.845   0.848   0.849   0.850   0.856   0.856   0.866
  0.868   0.876   0.879   0.882   0.892   0.896   0.898   0.901
  0.908   0.919   0.924   0.926   0.936   0.939   0.942   0.949
  0.956   0.965   0.978   0.981   0.986   0.996   1.006   1.026
  1.029   1.035   1.036   1.044   1.050   1.058   1.061   1.077
  1.078   1.090   1.106   1.114   1.118   1.137   1.141   1.149
  1.152   1.165   1.173   1.184   1.205   1.208   1.216   1.234
  1.246   1.254   1.262   1.278   1.282   1.290   1.293   1.296
  1.300   1.335   1.335   1.350   1.382   1.383   1.391   1.410
  1.418   1.422   1.429   1.432   1.452   1.454   1.456   1.461
  1.463   1.469   1.479   1.482   1.486   1.501   1.505   1.508
  1.511   1.521   1.537   1.541   1.554   1.572   1.598   1.622
  1.635   1.655   1.699   1.725   1.755   1.757   1.765   1.781
  1.784   1.798   1.808   1.812   1.814   1.819   1.825   1.827
  1.835   1.853   1.859   1.862   1.879   1.891   1.894   1.903
  1.917   1.924   1.930   1.937   1.941   1.946   1.959   1.963
  1.964   1.991   1.993   2.008   2.049   2.060   2.070   2.071
  2.080   2.089   2.100   2.113   2.113   2.127   2.136   2.141
  2.144   2.153   2.154   2.157   2.165   2.177   2.187   2.196
  2.200   2.209   2.218   2.235   2.249   2.254   2.266   2.277
  2.293   2.300   2.306   2.308   2.314   2.316   2.325   2.352
  2.371   2.415   2.442   2.450   2.483   2.509   2.532   2.540
  2.545   2.588   2.588   2.592   2.607   2.631   2.639   2.650
  2.655   2.657   2.675   2.681   2.701   2.718   2.721   2.730
  2.751   2.757   2.759   2.768   2.774   2.781   2.795   2.801
  2.837   2.838   2.854   2.857   2.897   2.937   2.961   2.978
  3.018   3.047   3.135   3.227   3.254   3.323   3.401   3.428
  3.465   3.947   3.958   4.001   4.020   4.097   4.112   4.121
  4.122   4.128   4.148   4.151   4.163   4.188   4.204   4.231
  4.280   4.314   4.355   4.363   4.375   4.388   4.407   4.432
  4.458   4.533   4.687   4.702   4.762   4.819
 --------------------------------------------------------------
 
          Ground-State Mulliken Net Atomic Charges

     Atom                 Charge (a.u.)
  ----------------------------------------
      1 H                     0.189727
      2 C                    -0.177386
      3 C                    -0.155842
      4 C                    -0.192359
      5 C                    -0.269134
      6 C                     0.101397
      7 C                    -0.180407
      8 S                     1.225853
      9 C                    -0.261699
     10 C                     0.097240
     11 C                    -0.195334
     12 C                     0.156067
     13 C                    -0.135427
     14 C                    -0.208928
     15 O                    -0.500169
     16 O                    -0.500190
     17 H                     0.214768
     18 H                     0.209287
     19 H                     0.219994
     20 H                     0.203136
     21 H                     0.191362
     22 H                     0.188997
     23 N                    -0.711992
     24 C                     0.331997
     25 C                    -0.175800
     26 S                     0.232977
     27 C                    -0.175824
     28 C                     0.332060
     29 C                    -0.203608
     30 C                    -0.185124
     31 C                    -0.158646
     32 C                    -0.205140
     33 C                    -0.205079
     34 C                    -0.158684
     35 C                    -0.185169
     36 C                    -0.203648
     37 H                     0.189761
     38 H                     0.189765
     39 H                     0.176281
     40 H                     0.185215
     41 H                     0.185209
     42 H                     0.176289
     43 H                     0.174100
     44 H                     0.174105
  ----------------------------------------
  Sum of atomic charges =     0.000000

 -----------------------------------------------------------------
                    Cartesian Multipole Moments
 -----------------------------------------------------------------
    Charge (ESU x 10^10)
                 0.0000
    Dipole Moment (Debye)
         X      -0.8254      Y       0.0034      Z       4.6290
       Tot       4.7020
    Quadrupole Moments (Debye-Ang)
        XX    -183.2220     XY       0.0244     YY    -173.3973
        XZ      20.9225     YZ       0.0064     ZZ    -172.9068
    Octopole Moments (Debye-Ang^2)
       XXX      35.1784    XXY       0.1309    XYY     -65.4111
       YYY       0.0318    XXZ     136.6178    XYZ       0.0662
       YYZ      21.7332    XZZ      35.7798    YZZ      -0.0296
       ZZZ       4.4483
    Hexadecapole Moments (Debye-Ang^3)
      XXXX  -12456.6846   XXXY       0.6169   XXYY   -2687.7092
      XYYY      -0.0869   YYYY   -2979.1024   XXXZ     513.1968
      XXYZ       0.0211   XYYZ     -69.7838   YYYZ      -0.3305
      XXZZ   -2577.4327   XYZZ       0.1673   YYZZ    -961.4090
      XZZZ     150.8564   YZZZ       0.3799   ZZZZ   -1785.3498
 -----------------------------------------------------------------
Archival summary:
1\1\tp-linux1\SP\ProcedureUnspecified\6-31G*\2212415\thomas\MonMar2011:59:402017MonMar2011:59:402017\0\\#,ProcedureUnspecified,6-31G*,\\0,1\S\O,1,1.45178\O,1,1.45178,2,119.889\C,1,1.79133,2,110.504,3,-130.255,0\C,4,1.3848,1,125.679,2,67.5322,0\H,5,1.09106,4,120.814,1,-0.017304,0\C,4,1.3966,1,111.271,2,-112.484,0\C,7,1.39372,4,118.856,1,-179.981,0\H,8,1.09113,7,120.726,4,179.997,0\C,8,1.39598,7,119.01,4,0,0\H,10,1.09067,8,119.388,7,179.996,0\C,5,1.39682,4,117.583,1,179.979,0\H,12,1.09055,5,119.808,4,-179.998,0\C,7,1.48202,4,112.899,1,0.0151336,0\C,14,1.39137,7,128.175,4,179.987,0\H,15,1.09223,14,121.624,7,0.00562571,0\C,14,1.39816,7,113.029,4,-0.0117773,0\C,17,1.38352,14,122.995,7,179.996,0\H,18,1.091,17,120.919,14,-179.999,0\C,18,1.39749,17,117.77,14,0,0\H,20,1.09036,18,121.164,17,-179.998,0\C,20,1.39636,18,120.322,17,0.00102578,0\N,22,1.42818,20,118.771,18,179.996,0\C,23,1.415,22,117.499,20,99.8703,0\C,24,1.40202,23,121.605,22,8.65324,0\H,25,1.0885,24,120.068,23,-1.06799,0\C,25,1.39442,24,120.902,23,179.999,0\H,27,1.09073,25,118.993,24,179.265,0\C,27,1.39018,25,120.644,24,-1.15987,0\H,29,1.0901,27,120.854,25,-179.37,0\C,29,1.39371,27,119,25,1.11593,0\H,31,1.0915,29,120.641,27,179.411,0\C,31,1.39304,29,120.722,27,0.719402,0\C,23,1.41503,22,117.492,20,-99.8179,0\C,34,1.40202,23,121.603,22,-8.66486,0\H,35,1.0885,34,120.069,23,1.06511,0\C,35,1.39443,34,120.902,23,180,0\H,37,1.09073,35,118.993,34,-179.265,0\C,37,1.39018,35,120.643,34,1.16136,0\H,39,1.0901,37,120.853,35,179.369,0\C,39,1.3937,37,119.001,35,-1.11169,0\H,41,1.0915,39,120.641,37,-179.417,0\C,41,1.39304,39,120.722,37,-0.723585,0\S,43,1.7688,41,118.788,39,-172.068,0\\\@

 Total job time:  28.47s(wall), 181.43s(cpu) 
 Mon Mar 20 11:59:40 2017

        *************************************************************
        *                                                           *
        *  Thank you very much for using Q-Chem.  Have a nice day.  *
        *                                                           *
        *************************************************************


0 sent ACK to 0 
now end server 0 ... 
cleanup process ... done
